15
	Energy:     -40.3944690
O          1.11448        1.23203        0.00070
O          3.80810        1.14728       -0.00019
O          0.44477        3.85328        0.00052
O          4.63942        3.71254       -0.00021
O          2.58853        5.47869        0.00022
H          0.92143        0.27925        0.00114
H          2.10626        1.19837        0.00031
H          4.68696        0.73144       -0.00071
H          4.08009        2.10177       -0.00014
H          0.75521        2.91097        0.00070
H         -0.51550        3.69955        0.00013
H          5.35672        4.36945       -0.00006
H          3.86124        4.32739       -0.00012
H          2.14407        6.34340        0.00042
H          1.79431        4.88358        0.00034
